# vtk DataFile Version 5.10
Hexahedral mesh with data
ASCII
DATASET UNSTRUCTURED_GRID
POINTS 2515 float
  -2.3198740177000001e+01    9.1010442233000006e+00   -6.9783315770000002e+01
  -2.2142140583000000e+01    8.6865320747000005e+00   -6.7960382699999997e+01
  -2.1112864280000000e+01    8.2827390637999994e+00   -6.6221312408000003e+01
  -2.0109641148000001e+01    7.8891669119000003e+00   -6.4563958886999998e+01
  -1.9131233214000002e+01    7.5053299531000004e+00   -6.2986276973000002e+01
  -1.5073313316000000e+01    1.1198308319000001e+01   -7.1854158505000001e+01
  -1.4731206563000001e+01    1.0944149407999999e+01   -7.0932819835000004e+01
  -1.4393464373000000e+01    1.0693233030000000e+01   -7.0032497143000001e+01
  -1.4059986679000000e+01    1.0445484843999999e+01   -6.9152923681000004e+01
  -1.3730674678000000e+01    1.0200831446000000e+01   -6.8293838848999997e+01
  -6.8589475580999997e+00    1.1756156014000000e+01   -7.3188078654999998e+01
  -6.7188668407999996e+00    1.1516059301000000e+01   -7.2354229853000007e+01
  -6.5803747736000000e+00    1.1278685514999999e+01   -7.1537488929000006e+01
  -6.4434386106000003e+00    1.1043978531000000e+01   -7.0737662767000003e+01
  -6.3080259736000004e+00    1.0811882852000000e+01   -6.9954562250999999e+01
   1.1610150543000000e+00    1.0198293135000000e+01   -7.1516206290000000e+01
   1.1327174189000000e+00    9.9497282434999992e+00   -7.0598601871000000e+01
   1.1047807273000001e+00    9.7043338634000005e+00   -6.9703493915999999e+01
   1.0771960776000000e+00    9.4620317994000001e+00   -6.8830597194000006e+01
   1.0499546796999999e+00    9.2227448410000008e+00   -6.7979633554000003e+01
   7.7456279741999996e+00    7.1858853277000003e+00   -6.8017363138999997e+01
   7.5141940938999996e+00    6.9711761612999998e+00   -6.7038943993999993e+01
   7.2860629784000004e+00    6.7595310834999998e+00   -6.6089990932000006e+01
   7.0611343558000002e+00    6.5508570683000000e+00   -6.5170086854999994e+01
   6.8393093615999998e+00    6.3450623960000003e+00   -6.4278827429000003e+01
  -2.0646153948999999e+01    1.7241080581999999e+01   -6.4364850438999994e+01
  -1.9556734211999999e+01    1.6320350806000000e+01   -6.2544806753000003e+01
  -1.8498133101000001e+01    1.5426546698999999e+01   -6.0822808674999997e+01
  -1.7460811186000001e+01    1.4571275593999999e+01   -5.9178902315000002e+01
  -1.6450716832000001e+01    1.3737577238000000e+01   -5.7627846447000003e+01
  -1.1086124436000000e+01    1.8820375195000000e+01   -6.2796104251000003e+01
  -1.0776431586999999e+01    1.8284127827999999e+01   -6.1935797291999997e+01
  -1.0468457768000000e+01    1.7756322364999999e+01   -6.1099155793000001e+01
  -1.0161322216000000e+01    1.7240485665000001e+01   -6.0275277268000004e+01
  -9.8559444678000006e+00    1.6731958391999999e+01   -5.9474741717000001e+01
  -2.4492286967000001e+00    1.8384445517000000e+01   -6.2421762096000002e+01
  -2.3843656074999999e+00    1.7872783732999999e+01   -6.1629322948000002e+01
  -2.3174296930999998e+00    1.7366440683000000e+01   -6.0860300291999998e+01
  -2.2504834327999999e+00    1.6869226583000000e+01   -6.0105454234000000e+01
  -2.1817533765000001e+00    1.6376717346000000e+01   -5.9373525864999998e+01
   5.2179260563999996e+00    1.5250079210999999e+01   -6.1152758077000001e+01
   5.0437385701000004e+00    1.4747726316000000e+01   -6.0304594289999997e+01
   4.8741515669000002e+00    1.4250784613000000e+01   -5.9484721657999998e+01
   4.7066794050000000e+00    1.3762176361000000e+01   -5.8689550976000000e+01
   4.5433197868999997e+00    1.3278453141000000e+01   -5.7921928782999998e+01
   1.1303097899000001e+01    1.0485377230999999e+01   -5.9679830461000002e+01
   1.0886310087000000e+01    1.0098741861000001e+01   -5.8812257125999999e+01
   1.0475511720000000e+01    9.7176626305999996e+00   -5.7977041198000002e+01
   1.0070476784000000e+01    9.3419298770000001e+00   -5.7173723156999998e+01
   9.6709824358999992e+00    8.9713368790000008e+00   -5.6401861031000003e+01
  -2.0192617113000001e+01    2.1920704314000002e+01   -5.4513531999999998e+01
  -1.8783363264999998e+01    2.0390846311000001e+01   -5.2717412500000002e+01
  -1.7419640054999999e+01    1.8910415464000000e+01   -5.1049079347000003e+01
  -1.6098141834000000e+01    1.7475823226999999e+01   -4.9504488522000003e+01
  -1.4815665307000000e+01    1.6083592165999999e+01   -4.8079895958000002e+01
  -9.4977383745000008e+00    2.2214865534000001e+01   -5.1666009369000001e+01
  -9.1287957924000001e+00    2.1335243718000001e+01   -5.0870227966000002e+01
  -8.7587350073000003e+00    2.0470361073999999e+01   -5.0102079930999999e+01
  -8.3941890891999993e+00    1.9618367427999999e+01   -4.9365478267999997e+01
  -8.0290973731000008e+00    1.8779767504999999e+01   -4.8656238412000000e+01
  -7.1974146159999997e-01    2.1307086798000000e+01   -5.1528323747000002e+01
  -7.0023011353999998e-01    2.0496779535999998e+01   -5.0834142327000002e+01
  -6.7288845488000004e-01    1.9696448417999999e+01   -5.0161076086999998e+01
  -6.4590401519999996e-01    1.8906573631000001e+01   -4.9514639056999997e+01
  -6.1226310043999999e-01    1.8125318215000000e+01   -4.8888991650000001e+01
   7.0586318087000004e+00    1.7880537393000001e+01   -5.1632280281000000e+01
   6.7668011557999996e+00    1.7155632341000000e+01   -5.0940907662999997e+01
   6.4840171384999996e+00    1.6438699995000000e+01   -5.0274010029999999e+01
   6.2048805937999996e+00    1.5731014956999999e+01   -4.9635393178000001e+01
   5.9335168008999997e+00    1.5030458013000001e+01   -4.9020809579000002e+01
   1.3754679740000000e+01    1.2759170913000000e+01   -5.2029926396999997e+01
   1.3201640208000001e+01    1.2246158175000000e+01   -5.1338979541999997e+01
   1.2655843330000000e+01    1.1739863896999999e+01   -5.0676198163000002e+01
   1.2116989673000001e+01    1.1240010315999999e+01   -5.0041218645999997e+01
   1.1584783610000001e+01    1.0746323204999999e+01   -4.9433692628999999e+01
  -2.2537586553000001e+01    2.3399755995000000e+01   -4.4449054220000001e+01
  -2.0621421682000001e+01    2.1406030299000001e+01   -4.2832965227000003e+01
  -1.8770964914000000e+01    1.9481294044999999e+01   -4.1357787561999999e+01
  -1.6974536626999999e+01    1.7620387718000000e+01   -4.0048574432000002e+01
  -1.5235102253000001e+01    1.5817917080000001e+01   -3.8869259870999997e+01
  -1.0340892439999999e+01    2.3798343096000000e+01   -4.2453688620999998e+01
  -9.8525378594999999e+00    2.2633560495000001e+01   -4.1765589833000000e+01
  -9.3578416888000007e+00    2.1490707671999999e+01   -4.1101729532000000e+01
  -8.8649383661000005e+00    2.0364815812000000e+01   -4.0483103251999999e+01
  -8.3686238888000002e+00    1.9259399873000000e+01   -3.9889128767999999e+01
  -6.6445725642999998e-01    2.3310285614000001e+01   -4.3030478475999999e+01
  -6.5226150860999998e-01    2.2238302834999999e+01   -4.2445516232999999e+01
  -6.2360006823000003e-01    2.1182421224999999e+01   -4.1870739122000003e+01
  -5.9067882296999996e-01    2.0138693407000002e+01   -4.1327976796000002e+01
  -5.4468825780999996e-01    1.9108586349999999e+01   -4.0795910378000002e+01
   8.1202923484999996e+00    2.0120858649999999e+01   -4.3869285789999999e+01
   7.7484104598999997e+00    1.9229761460999999e+01   -4.3322517449999999e+01
   7.3924922239999997e+00    1.8349946363000001e+01   -4.2787540780000000e+01
   7.0432098508000003e+00    1.7479616760999999e+01   -4.2278017573000000e+01
   6.7073531320999997e+00    1.6619808559999999e+01   -4.1780762912999997e+01
   1.6252505048000000e+01    1.5075942596999999e+01   -4.4951622067000002e+01
   1.5620113251999999e+01    1.4489331340000000e+01   -4.4419663215000000e+01
   1.4995101245000001e+01    1.3909565629999999e+01   -4.3908690624000002e+01
   1.4377173739000000e+01    1.3336371553999999e+01   -4.3418462882999997e+01
   1.3766038790000000e+01    1.2769478304000000e+01   -4.2948748381000001e+01
  -2.5382224087000001e+01    2.3925890422999998e+01   -3.4837956773999998e+01
  -2.3123450847000001e+01    2.1796716837999998e+01   -3.3613385835000003e+01
  -2.0941795763999998e+01    1.9740236671000002e+01   -3.2500917645999998e+01
  -1.8829982883000000e+01    1.7749591428999999e+01   -3.1496842053000002e+01
  -1.6780969174999999e+01    1.5818142187999999e+01   -3.0597810403000000e+01
  -1.1875788210000000e+01    2.5459553526000001e+01   -3.4340191947999998e+01
  -1.1316822499000001e+01    2.4206570741000000e+01   -3.3827858481000000e+01
  -1.0743948316999999e+01    2.2981198566000000e+01   -3.3329451677000002e+01
  -1.0179358073000000e+01    2.1773545650999999e+01   -3.2856742978000000e+01
  -9.6055765766000007e+00    2.0592628183999999e+01   -3.2399418533999999e+01
  -9.3591114317000001e-01    2.5852197196999999e+01   -3.5578511151000001e+01
  -9.1790813640000002e-01    2.4617701215000000e+01   -3.5114111547000000e+01
  -8.7277198371999998e-01    2.3407178858000002e+01   -3.4648987411000000e+01
  -8.2822262199999996e-01    2.2212393854999998e+01   -3.4207158835000001e+01
  -7.6167793967999997e-01    2.1039442089000001e+01   -3.3765835252999999e+01
   9.2973987362999999e+00    2.2870541497000001e+01   -3.6610654629999999e+01
   8.8796119289999993e+00    2.1885888519000002e+01   -3.6194974016000003e+01
   8.4863748660000002e+00    2.0916663446000001e+01   -3.5775457131000003e+01
   8.0976189566999999e+00    1.9958483227999999e+01   -3.5374831153000002e+01
   7.7306320235000001e+00    1.9016473908999998e+01   -3.4971801065999998e+01
   1.9067358006999999e+01    1.7686822871000000e+01   -3.7580811046999997e+01
   1.8401269147000001e+01    1.7068960885999999e+01   -3.7181857661000002e+01
   1.7742163427000001e+01    1.6457576439000000e+01   -3.6797014503000000e+01
   1.7089790721000000e+01    1.5852437515000000e+01   -3.6426135527000000e+01
   1.6443903458000001e+01    1.5253314468999999e+01   -3.6069079989000002e+01
  -2.6460116162999999e+01    2.6157255472999999e+01   -2.5041192927000001e+01
[...]
CELL_DATA 240
SCALARS elements float 1
LOOKUP_TABLE default
1
1
1
1
1
1
1
1
1
1
1
1
1
1
1
1
1
1
1
1
1
1
1
1
1
1
1
1
1
1
1
1
1
1
1
1
1
1
1
1
1
1
1
1
1
1
1
1
1
1
1
1
1
1
1
1
1
1
1
1
1
1
1
1
1
1
1
1
1
1
1
1
1
1
1
1
1
1
1
1
1
1
1
1
1
1
1
1
1
1
1
1
1
1
1
1
1
1
1
1
1
1
1
1
1
1
1
1
1
1
1
1
1
1
1
1
1
1
1
1
1
1
1
1
1
1
1
1
1
1
1
1
1
1
1
1
1
1
1
1
1
1
1
1
1
1
1
1
1
1
1
1
1
1
1
1
1
1
1
1
1
1
1
1
1
1
1
1
1
1
1
1
1
1
1
1
1
1
1
1
1
1
1
1
1
1
1
1
1
1
1
1
1
1
1
1
1
1
1
1
1
1
1
1
1
1
1
1
1
1
1
1
1
1
1
1
1
1
1
1
1
1
1
1
1
1
1
1
1
1
1
1
1
1
1
1
1
1
1
1
